 Gaussian 16, Revision B.01,
 Gaussian 16:  ES64L-G16RevB.01 20-Dec-2017

 -----------------------------------
 # PBE1PBE 6-31G(d,p) # sp scf=tight
 -----------------------------------

 -------------------
 HF Atom Calculation
 -------------------
 Symbolic Z-matrix:
 Charge =  0 Multiplicity = 1

                         Standard orientation:
 ---------------------------------------------------------------------
 Center     Atomic      Atomic             Coordinates (Angstroms)
 Number     Number       Type             X           Y           Z
 ---------------------------------------------------------------------
      1          9           0        0.000000    0.000000    0.090000
      2          1           0        0.000000    0.000000   -0.810000
 ---------------------------------------------------------------------

 SCF Done:  E(RPBE1PBE) =  -100.332390250     A.U. after    9 cycles

 The electronic state is 1-SG.
 Alpha  occ. eigenvalues --  -24.74631  -1.20774  -0.53928  -0.39497  -0.39497
 Alpha virt. eigenvalues --    0.09586   0.80573   1.10987   1.20479   1.20479
 Alpha virt. eigenvalues --    1.45102   1.63360   1.63360   1.88049   1.88049
 Alpha virt. eigenvalues --    2.57473   2.76497   2.76497   3.68764   3.77419

 Mulliken charges:
               1
     1  F   -0.356964
     2  H    0.356964
 Sum of Mulliken charges =  -0.00000

 Dipole moment (field-independent basis, Debye):
    X=              0.0000    Y=              0.0000    Z=             -1.8173  Tot=              1.8173
 Quadrupole moment (field-independent basis, Debye-Ang):
   XX=             -5.3507   YY=             -5.3507   ZZ=             -3.4809
   XY=              0.0000   XZ=              0.0000   YZ=              0.0000

 Normal termination of Gaussian 16 at Wed Mar  1 23:39:12 2023.
