 Gaussian 16, Revision B.01,
 Gaussian 16:  ES64L-G16RevB.01 20-Dec-2017

 -----------------------------------
 # PBE1PBE 6-31G(d,p) # sp scf=tight
 -----------------------------------

 -------------------
 HF Atom Calculation
 -------------------
 Symbolic Z-matrix:
 Charge =  0 Multiplicity = 1

                         Standard orientation:
 ---------------------------------------------------------------------
 Center     Atomic      Atomic             Coordinates (Angstroms)
 Number     Number       Type             X           Y           Z
 ---------------------------------------------------------------------
      1          9           0        0.000000    0.000000    0.110000
      2          1           0        0.000000    0.000000   -0.990000
 ---------------------------------------------------------------------

 SCF Done:  E(RPBE1PBE) =  -100.308752238     A.U. after    9 cycles

 The electronic state is 1-SG.
 Alpha  occ. eigenvalues --  -24.75045  -1.15581  -0.49673  -0.37948  -0.37948
 Alpha virt. eigenvalues --    0.01834   0.70349   1.08507   1.19983   1.19983
 Alpha virt. eigenvalues --    1.44440   1.63372   1.63372   1.89644   1.89644
 Alpha virt. eigenvalues --    2.15495   2.52035   2.52035   3.50463   3.65245

 Mulliken charges:
               1
     1  F   -0.395567
     2  H    0.395567
 Sum of Mulliken charges =  -0.00000

 Dipole moment (field-independent basis, Debye):
    X=              0.0000    Y=              0.0000    Z=             -2.0601  Tot=              2.0601
 Quadrupole moment (field-independent basis, Debye-Ang):
   XX=             -5.5252   YY=             -5.5252   ZZ=             -2.9477
   XY=              0.0000   XZ=              0.0000   YZ=              0.0000

 Normal termination of Gaussian 16 at Wed Mar  1 23:39:13 2023.
