 Gaussian 16, Revision B.01,
 Gaussian 16:  ES64L-G16RevB.01 20-Dec-2017

 ------------------------------
 # HF 6-31G(d,p) scf=tight scan
 ------------------------------

 -----------------------------
 h3o+ scan along umbrella mode
 -----------------------------
 Symbolic Z-matrix:
 Charge =  1 Multiplicity = 1

 SCF Done:  E(RHF) =  -76.2084334233     A.U. after    9 cycles

 The electronic state is 1-A1.
 Alpha  occ. eigenvalues --  -21.06403  -1.90769  -1.10298  -1.10298  -1.08289
 Alpha virt. eigenvalues --   -0.15314  -0.02960  -0.02960   0.56401   0.56401
 Alpha virt. eigenvalues --    0.66620   0.78978   0.90191   0.90191   1.09720
 Alpha virt. eigenvalues --    1.23940   1.23940   1.83400   2.09545   2.09545

 Mulliken charges:
               1
     1  O   -0.253286
     2  H    0.417762
     3  H    0.417762
     4  H    0.417762
 Sum of Mulliken charges =   1.00000

 Dipole moment (field-independent basis, Debye):
    X=             -0.0000    Y=             -0.0000    Z=             -3.4856  Tot=              3.4856
 Quadrupole moment (field-independent basis, Debye-Ang):
   XX=             -4.3749   YY=             -4.3749   ZZ=             -4.0351
   XY=             -0.0000   XZ=              0.0000   YZ=              0.0000

 SCF Done:  E(RHF) =  -76.2170946459     A.U. after    8 cycles
 SCF Done:  E(RHF) =  -76.2252277085     A.U. after    8 cycles
 SCF Done:  E(RHF) =  -76.2328568241     A.U. after    8 cycles
 SCF Done:  E(RHF) =  -76.2400043340     A.U. after    8 cycles
 SCF Done:  E(RHF) =  -76.2466909375     A.U. after    8 cycles
 SCF Done:  E(RHF) =  -76.2529359137     A.U. after    8 cycles
 SCF Done:  E(RHF) =  -76.2587573359     A.U. after    8 cycles
 SCF Done:  E(RHF) =  -76.2641722729     A.U. after    8 cycles
 SCF Done:  E(RHF) =  -76.2691969746     A.U. after    8 cycles
 SCF Done:  E(RHF) =  -76.3098891964     A.U. after    8 cycles
 SCF Done:  E(RHF) =  -76.3097267841     A.U. after    8 cycles
 SCF Done:  E(RHF) =  -76.3095613389     A.U. after    8 cycles
 SCF Done:  E(RHF) =  -76.3094009398     A.U. after    8 cycles
 SCF Done:  E(RHF) =  -76.3092527344     A.U. after    8 cycles
 SCF Done:  E(RHF) =  -76.3091228796     A.U. after    8 cycles
 SCF Done:  E(RHF) =  -76.3090164891     A.U. after    8 cycles
 SCF Done:  E(RHF) =  -76.3089375886     A.U. after    8 cycles
 SCF Done:  E(RHF) =  -76.3088890801     A.U. after    8 cycles

                         Standard orientation:
 ---------------------------------------------------------------------
 Center     Atomic      Atomic             Coordinates (Angstroms)
 Number     Number       Type             X           Y           Z
 ---------------------------------------------------------------------
      1          8           0        0.000000    0.000000    0.000000
      2          1           0        0.000000    0.961200    0.000000
      3          1           0        0.832424   -0.480600    0.000000
      4          1           0       -0.832424   -0.480600    0.000000
 ---------------------------------------------------------------------

 SCF Done:  E(RHF) =  -76.3088727154     A.U. after    5 cycles
 Normal termination of Gaussian 16 at Mon Mar 13 20:12:27 2023.
