 Gaussian 16, Revision B.01,
 Gaussian 16:  ES64L-G16RevB.01 20-Dec-2017

 ------------------------------------
 # HF 6-31G(d,p) # opt freq scf=tight
 ------------------------------------

 ------------------
 F Atom Calculation
 ------------------
 Symbolic Z-matrix:
 Charge =  1 Multiplicity = 1

 SCF Done:  E(RHF) =  -76.1659147728     A.U. after   10 cycles
 SCF Done:  E(RHF) =  -76.2256812241     A.U. after   10 cycles
 SCF Done:  E(RHF) =  -76.2990504859     A.U. after   10 cycles
 SCF Done:  E(RHF) =  -76.3086111904     A.U. after   10 cycles
 SCF Done:  E(RHF) =  -76.3101316676     A.U. after   10 cycles
 SCF Done:  E(RHF) =  -76.3102167518     A.U. after    9 cycles
 SCF Done:  E(RHF) =  -76.3103140084     A.U. after    8 cycles
 SCF Done:  E(RHF) =  -76.3103230569     A.U. after    8 cycles
 SCF Done:  E(RHF) =  -76.3103247916     A.U. after    7 cycles
 Optimization completed.
    -- Stationary point found.
 Normal termination of Gaussian 16 at Sun Mar 12 19:53:21 2023.

 -------------------------------------------------------------------
 #N Geom=AllCheck Guess=TCheck SCRF=Check GenChk RHF/6-31G(d,p) Freq
 -------------------------------------------------------------------

 Structure from the checkpoint file:  "/scratch-data/g16-scratch/Gau-296662.chk"
 ------------------
 F Atom Calculation
 ------------------
 Charge =  1 Multiplicity = 1

                         Standard orientation:
 ---------------------------------------------------------------------
 Center     Atomic      Atomic             Coordinates (Angstroms)
 Number     Number       Type             X           Y           Z
 ---------------------------------------------------------------------
      1          8           0       -0.000000    0.000022   -0.061040
      2          1           0        0.443707    0.822762    0.162798
      3          1           0       -0.934493   -0.027237    0.162773
      4          1           0        0.490787   -0.795698    0.162750
 ---------------------------------------------------------------------

 SCF Done:  E(RHF) =  -76.3103247916     A.U. after    1 cycles

 The electronic state is 1-A.
 Alpha  occ. eigenvalues --  -21.01186  -1.80914  -1.14909  -1.14903  -0.94995
 Alpha virt. eigenvalues --   -0.10805   0.00408   0.00412   0.64679   0.64687
 Alpha virt. eigenvalues --    0.70546   0.76255   0.89630   0.89631   1.09779
 Alpha virt. eigenvalues --    1.34336   1.34339   1.98667   1.99903   2.21522

 Mulliken charges:
               1
     1  O   -0.438804
     2  H    0.479558
     3  H    0.479626
     4  H    0.479620
 Sum of Mulliken charges =   1.00000

 Dipole moment (field-independent basis, Debye):
    X=             -0.0001    Y=             -0.0005    Z=              1.3593  Tot=              1.3593
 Quadrupole moment (field-independent basis, Debye-Ang):
   XX=             -2.3369   YY=             -2.3376   ZZ=             -6.2524
   XY=              0.0000   XZ=             -0.0000   YZ=              0.0000

  Exact polarizability:   5.126  -0.000   5.126  -0.000  -0.000   2.938
 Approx polarizability:   4.377  -0.000   4.377  -0.000  -0.000   2.624

                      1                      2                      3
                      A                      A                      A
 Frequencies --    780.0252              1788.3470              1788.6176
 Red. masses --      1.1738                 1.0696                 1.0696
 Frc consts  --      0.4208                 2.0154                 2.0160
 IR Inten    --    629.2968               141.2060               141.2322
 Raman Activ --      0.5983                 1.9026                 1.9042

                      4                      5                      6
                      A                      A                      A
 Frequencies --   3857.6288              3993.2437              3994.4358
 Red. masses --      1.0155                 1.0932                 1.0933
 Frc consts  --      8.9035                10.2712                10.2774
 IR Inten    --     45.8829               630.6330               630.6011
 Raman Activ --     38.6160                10.7196                10.7163

 - Thermochemistry -
 -------------------
 Temperature   298.150 Kelvin.  Pressure   1.00000 Atm.
 Atom     1 has atomic number  8 and mass  15.99491

 Molecular mass:    19.01839 amu.
 Principal axes and moments of inertia in atomic units:
                           1         2         3
     Eigenvalues --     5.17250   5.17325   9.43602
           X            1.00000   0.00000  -0.00000
           Y           -0.00000   1.00000   0.00001
           Z            0.00000  -0.00001   1.00000
 This molecule is an asymmetric top.
 Rotational symmetry number  1.
 Rotational temperatures (Kelvin)     16.74508    16.74264     9.17907
 Rotational constants (GHZ):         348.91078   348.86002   191.26082
 Zero-point vibrational energy      96911.3 (Joules/Mol)
                                   23.16235 (Kcal/Mol)
 Vibrational temperatures:   1122.28  2573.03  2573.42  5550.27  5745.39
          (Kelvin)           5747.10

 Zero-point correction=                           0.036912 (Hartree/Particle)
 Thermal correction to Energy=                    0.039831
 Thermal correction to Enthalpy=                  0.040776
 Thermal correction to Gibbs Free Energy=         0.017826
 Sum of electronic and zero-point Energies=            -76.273413
 Sum of electronic and thermal Energies=               -76.270493
 Sum of electronic and thermal Enthalpies=             -76.269549
 Sum of electronic and thermal Free Energies=          -76.292498

                     E (Thermal)             CV                S
                      KCal/Mol        Cal/Mol-Kelvin    Cal/Mol-Kelvin
 Total                   24.995              6.699             48.300
 Electronic               0.000              0.000              0.000
 Translational            0.889              2.981             34.771
 Rotational               0.889              2.981             13.299
 Vibrational             23.217              0.737              0.231

 Optimization completed.
    -- Stationary point found.
 Normal termination of Gaussian 16 at Sun Mar 12 19:53:23 2023.
