 Gaussian 16, Revision B.01,
 Gaussian 16:  ES64L-G16RevB.01 20-Dec-2017

 ----------------------------------------------------
 # MP2 def2qzvpp # opt freq=(anharm,vibrot) scf=tight
 ----------------------------------------------------

 -----
 D35Cl
 -----
 Symbolic Z-matrix:
 Charge =  0 Multiplicity = 1

 SCF Done:  E(RHF) =  -460.035774182     A.U. after    9 cycles
 E2 =    -0.2221884303D+00 EUMP2 =    -0.46025796261273D+03
 SCF Done:  E(RHF) =  -460.103504124     A.U. after   10 cycles
 E2 =    -0.2227749882D+00 EUMP2 =    -0.46032627911206D+03
 SCF Done:  E(RHF) =  -460.111263756     A.U. after   10 cycles
 E2 =    -0.2239836203D+00 EUMP2 =    -0.46033524737645D+03
 SCF Done:  E(RHF) =  -460.112328549     A.U. after    8 cycles
 E2 =    -0.2236392965D+00 EUMP2 =    -0.46033596784503D+03
 Optimization completed.
    -- Stationary point found.
 Normal termination of Gaussian 16 at Mon Apr 17 14:48:46 2023.

 ----------------------------------------------------------------------
 #N Geom=AllCheck Guess=TCheck SCRF=Check GenChk RMP2(FC)/def2QZVPP Fre
 q
 ----------------------------------------------------------------------

 Structure from the checkpoint file:  "/scratch-data/g16-scratch/Gau-135623.chk"
 -----
 D35Cl
 -----
 Charge =  0 Multiplicity = 1

                         Standard orientation:
 ---------------------------------------------------------------------
 Center     Atomic      Atomic             Coordinates (Angstroms)
 Number     Number       Type             X           Y           Z
 ---------------------------------------------------------------------
      1          1           0        0.000000    0.000000   -1.200473
      2         17           0        0.000000    0.000000    0.070616
 ---------------------------------------------------------------------

 SCF Done:  E(RHF) =  -460.112328549     A.U. after    1 cycles
 E2 =    -0.2236392959D+00 EUMP2 =    -0.46033596784443D+03
 E2 =    -0.2236392959D+00 EUMP2 =    -0.46033596784443D+03
 SCF Done:  E(RHF) =  -460.112358391     A.U. after    7 cycles
 E2 =    -0.2235734113D+00 EUMP2 =    -0.46033593180185D+03
 E2 =    -0.2235734113D+00 EUMP2 =    -0.46033593180185D+03
 SCF Done:  E(RHF) =  -460.112232650     A.U. after    7 cycles
 E2 =    -0.2237065361D+00 EUMP2 =    -0.46033593918587D+03
 E2 =    -0.2237065361D+00 EUMP2 =    -0.46033593918587D+03

 Alpha  occ. eigenvalues -- -104.84879 -10.57400  -8.04129  -8.03944  -8.03944
 Alpha  occ. eigenvalues --   -1.11596  -0.62498  -0.47669  -0.47669
 Alpha virt. eigenvalues --    0.09651   0.23025   0.28632   0.28632   0.30197
 Alpha virt. eigenvalues --    0.43571   0.43571   0.49411   0.49411   0.50235
 Alpha virt. eigenvalues --    0.67398   0.82760   0.82760   1.02832   1.18920

 Mulliken charges:
               1
     1  H    0.169892
     2  Cl  -0.169892
 Sum of Mulliken charges =  -0.00000

 Dipole moment (field-independent basis, Debye):
    X=             -0.0000    Y=              0.0000    Z=             -1.1590  Tot=              1.1590
 Quadrupole moment (field-independent basis, Debye-Ang):
   XX=            -14.0409   YY=            -14.0409   ZZ=            -10.4214
   XY=              0.0000   XZ=              0.0000   YZ=             -0.0000

  Exact polarizability:  13.539   0.000  13.539   0.000   0.000  16.465
 Approx polarizability:  12.785  -0.000  12.785   0.000   0.000  16.500

                      1
                     SG
 Frequencies --   2187.9215
 Red. masses --      2.1176
 Frc consts  --      5.9724
 IR Inten    --     28.7783

 - Thermochemistry -
 -------------------
 Temperature   298.150 Kelvin.  Pressure   1.00000 Atm.
 Atom     1 has atomic number  1 and mass   2.01410

 Molecular mass:    38.98000 amu.
 Principal axes and moments of inertia in atomic units:
                           1         2         3
     Eigenvalues --     0.00000  11.02023  11.02023
           X            0.00000  -0.00000   1.00000
           Y            0.00000   1.00000   0.00000
           Z            1.00000   0.00000   0.00000
 This molecule is a prolate symmetric top.
 Rotational symmetry number  1.
 Rotational temperature (Kelvin)      7.85954
 Rotational constant (GHZ):         163.766192
 Zero-point vibrational energy      13086.7 (Joules/Mol)
                                    3.12779 (Kcal/Mol)
 Vibrational temperatures:   3147.93
          (Kelvin)

 Zero-point correction=                           0.004984 (Hartree/Particle)
 Thermal correction to Energy=                    0.007345
 Thermal correction to Enthalpy=                  0.008289
 Thermal correction to Gibbs Free Energy=        -0.013625
 Sum of electronic and zero-point Energies=           -460.330983
 Sum of electronic and thermal Energies=              -460.328623
 Sum of electronic and thermal Enthalpies=            -460.327678
 Sum of electronic and thermal Free Energies=         -460.349593

                     E (Thermal)             CV                S
                      KCal/Mol        Cal/Mol-Kelvin    Cal/Mol-Kelvin
 Total                    4.609              4.974             46.123
 Electronic               0.000              0.000              0.000
 Translational            0.889              2.981             36.910
 Rotational               0.592              1.987              9.212
 Vibrational              3.128              0.006              0.001

 Optimization completed.
    -- Stationary point found.
 Normal termination of Gaussian 16 at Mon Apr 17 14:52:22 2023.
