 Gaussian 16, Revision B.01,
 Gaussian 16:  ES64L-G16RevB.01 20-Dec-2017

 ----------------------------------------------------
 # MP2 def2qzvpp # opt freq=(anharm,vibrot) scf=tight
 ----------------------------------------------------

 -----
 H35Cl
 -----
 Symbolic Z-matrix:
 Charge =  0 Multiplicity = 1

 SCF Done:  E(RHF) =  -460.035774182     A.U. after    9 cycles
 E2 =    -0.2221884303D+00 EUMP2 =    -0.46025796261273D+03
 SCF Done:  E(RHF) =  -460.103504124     A.U. after   10 cycles
 E2 =    -0.2227749882D+00 EUMP2 =    -0.46032627911206D+03
 SCF Done:  E(RHF) =  -460.111263756     A.U. after   10 cycles
 E2 =    -0.2239836203D+00 EUMP2 =    -0.46033524737644D+03
 SCF Done:  E(RHF) =  -460.112328549     A.U. after    8 cycles
 E2 =    -0.2236392965D+00 EUMP2 =    -0.46033596784503D+03
 Optimization completed.
    -- Stationary point found.
 Normal termination of Gaussian 16 at Mon Apr 17 14:09:33 2023.

 ----------------------------------------------------------------------
 #N Geom=AllCheck Guess=TCheck SCRF=Check GenChk RMP2(FC)/def2QZVPP Fre
 q
 ----------------------------------------------------------------------

 Structure from the checkpoint file:  "/scratch-data/g16-scratch/Gau-131750.chk"
 -----
 H35Cl
 -----
 Charge =  0 Multiplicity = 1

                         Standard orientation:
 ---------------------------------------------------------------------
 Center     Atomic      Atomic             Coordinates (Angstroms)
 Number     Number       Type             X           Y           Z
 ---------------------------------------------------------------------
      1          1           0        0.000000    0.000000   -1.200473
      2         17           0        0.000000    0.000000    0.070616
 ---------------------------------------------------------------------

 SCF Done:  E(RHF) =  -460.112328549     A.U. after    1 cycles
 E2 =    -0.2236392959D+00 EUMP2 =    -0.46033596784443D+03
 E2 =    -0.2236392959D+00 EUMP2 =    -0.46033596784443D+03
 SCF Done:  E(RHF) =  -460.112351364     A.U. after    8 cycles
 E2 =    -0.2235476729D+00 EUMP2 =    -0.46033589903714D+03
 E2 =    -0.2235476729D+00 EUMP2 =    -0.46033589903714D+03
 SCF Done:  E(RHF) =  -460.112176920     A.U. after    7 cycles
 E2 =    -0.2237335618D+00 EUMP2 =    -0.46033591048169D+03
 E2 =    -0.2237335618D+00 EUMP2 =    -0.46033591048169D+03

 Alpha  occ. eigenvalues -- -104.84894 -10.57407  -8.04136  -8.03952  -8.03952
 Alpha  occ. eigenvalues --   -1.11543  -0.62436  -0.47662  -0.47662
 Alpha virt. eigenvalues --    0.09616   0.23021   0.28635   0.28635   0.30176
 Alpha virt. eigenvalues --    0.43564   0.43564   0.49416   0.49416   0.50213
 Alpha virt. eigenvalues --    0.67392   0.82698   0.82698   1.02905   1.18717

 Mulliken charges:
               1
     1  H    0.170338
     2  Cl  -0.170338
 Sum of Mulliken charges =   0.00000

 Dipole moment (field-independent basis, Debye):
    X=             -0.0000    Y=              0.0000    Z=             -1.1623  Tot=              1.1623
 Quadrupole moment (field-independent basis, Debye-Ang):
   XX=            -14.0447   YY=            -14.0447   ZZ=            -10.4130
   XY=              0.0000   XZ=              0.0000   YZ=             -0.0000

  Exact polarizability:  13.542   0.000  13.542   0.000  -0.000  16.513
 Approx polarizability:  12.788   0.000  12.788   0.000  -0.000  16.549

                      1
                     SG
 Frequencies --   3055.1280
 Red. masses --      1.0360
 Frc consts  --      5.6974
 IR Inten    --     56.1126

 - Thermochemistry -
 -------------------
 Temperature   298.150 Kelvin.  Pressure   1.00000 Atm.
 Atom     1 has atomic number  1 and mass   1.00783

 Molecular mass:    35.97668 amu.
 Principal axes and moments of inertia in atomic units:
                           1         2         3
     Eigenvalues --     0.00000   5.65191   5.65191
           X            0.00000  -0.00000   1.00000
           Y            0.00000   1.00000   0.00000
           Z            1.00000   0.00000   0.00000
 This molecule is a prolate symmetric top.
 Rotational symmetry number  1.
 Rotational temperature (Kelvin)     15.32471
 Rotational constant (GHZ):         319.315224
 Zero-point vibrational energy      18273.7 (Joules/Mol)
                                    4.36752 (Kcal/Mol)
 Vibrational temperatures:   4395.65
          (Kelvin)

 Zero-point correction=                           0.006960 (Hartree/Particle)
 Thermal correction to Energy=                    0.009321
 Thermal correction to Enthalpy=                  0.010265
 Thermal correction to Gibbs Free Energy=        -0.010905
 Sum of electronic and zero-point Energies=           -460.329008
 Sum of electronic and thermal Energies=              -460.326647
 Sum of electronic and thermal Enthalpies=            -460.325703
 Sum of electronic and thermal Free Energies=         -460.346873

                     E (Thermal)             CV                S
                      KCal/Mol        Cal/Mol-Kelvin    Cal/Mol-Kelvin
 Total                    5.849              4.968             44.556
 Electronic               0.000              0.000              0.000
 Translational            0.889              2.981             36.671
 Rotational               0.592              1.987              7.885
 Vibrational              4.368              0.000              0.000

 Optimization completed.
    -- Stationary point found.
 Normal termination of Gaussian 16 at Mon Apr 17 14:12:58 2023.
