 Gaussian 16, Revision B.01,
 Gaussian 16:  ES64L-G16RevB.01 20-Dec-2017

 -----------------------------------
 # PBE1PBE 6-31G(d,p) # sp scf=tight
 -----------------------------------

 -------------------
 HF Atom Calculation
 -------------------
 Symbolic Z-matrix:
 Charge =  0 Multiplicity = 1

                         Standard orientation:
 ---------------------------------------------------------------------
 Center     Atomic      Atomic             Coordinates (Angstroms)
 Number     Number       Type             X           Y           Z
 ---------------------------------------------------------------------
      1          9           0        0.000000    0.000000    0.120000
      2          1           0        0.000000    0.000000   -1.080000
 ---------------------------------------------------------------------

 SCF Done:  E(RPBE1PBE) =  -100.285033017     A.U. after    9 cycles

 The electronic state is 1-SG.
 Alpha  occ. eigenvalues --  -24.75181  -1.14002  -0.47770  -0.37391  -0.37391
 Alpha virt. eigenvalues --   -0.02107   0.68589   1.07133   1.19999   1.19999
 Alpha virt. eigenvalues --    1.43267   1.65276   1.65276   1.90277   1.90277
 Alpha virt. eigenvalues --    1.98309   2.40838   2.40838   3.41653   3.60477

 Mulliken charges:
               1
     1  F   -0.388896
     2  H    0.388896
 Sum of Mulliken charges =   0.00000

 Dipole moment (field-independent basis, Debye):
    X=              0.0000    Y=              0.0000    Z=             -2.1648  Tot=              2.1648
 Quadrupole moment (field-independent basis, Debye-Ang):
   XX=             -5.6012   YY=             -5.6012   ZZ=             -2.6540
   XY=              0.0000   XZ=              0.0000   YZ=              0.0000

 Normal termination of Gaussian 16 at Wed Mar  1 23:39:14 2023.
