 Gaussian 16, Revision B.01,
 Gaussian 16:  ES64L-G16RevB.01 20-Dec-2017

 ---------------------------------------
 # PBE1PBE 6-311+g(d,p) # scan scf=tight
 ---------------------------------------

 -------------------------------------
 Scan of HCl Bond using PBE1PBE Method
 -------------------------------------
 Symbolic Z-matrix:
 Charge =  0 Multiplicity = 1

 SCF Done:  E(RPBE1PBE) =  -459.311945677     A.U. after    8 cycles

 The electronic state is 1-SG.
 Alpha  occ. eigenvalues -- -101.70238  -9.59672  -7.35343  -7.29765  -7.29765
 Alpha  occ. eigenvalues --   -1.04485  -0.53829  -0.37085  -0.37085
 Alpha virt. eigenvalues --    0.01918   0.07095   0.07960   0.07960   0.24227
 Alpha virt. eigenvalues --    0.27669   0.45602   0.45602   0.50429   0.73611
 Alpha virt. eigenvalues --    0.73611   0.84929   0.84929   1.06594   1.17942

 Mulliken charges:
               1
     1  H   -0.180746
     2  Cl   0.180746
 Sum of Mulliken charges =  -0.00000

 Dipole moment (field-independent basis, Debye):
    X=              0.0000    Y=              0.0000    Z=             -0.8512  Tot=              0.8512
 Quadrupole moment (field-independent basis, Debye-Ang):
   XX=            -13.1362   YY=            -13.1362   ZZ=            -11.2974
   XY=              0.0000   XZ=              0.0000   YZ=              0.0000

 SCF Done:  E(RPBE1PBE) =  -459.657324949     A.U. after    8 cycles
 SCF Done:  E(RPBE1PBE) =  -459.920125138     A.U. after    8 cycles
 SCF Done:  E(RPBE1PBE) =  -460.119732504     A.U. after    8 cycles
 SCF Done:  E(RPBE1PBE) =  -460.270805764     A.U. after    8 cycles
 SCF Done:  E(RPBE1PBE) =  -460.384565646     A.U. after    8 cycles
 SCF Done:  E(RPBE1PBE) =  -460.469608833     A.U. after    8 cycles
 SCF Done:  E(RPBE1PBE) =  -460.532533966     A.U. after    7 cycles
 SCF Done:  E(RPBE1PBE) =  -460.578410137     A.U. after    7 cycles
 SCF Done:  E(RPBE1PBE) =  -460.611138342     A.U. after    7 cycles
 SCF Done:  E(RPBE1PBE) =  -460.418073503     A.U. after    8 cycles
 SCF Done:  E(RPBE1PBE) =  -460.417228824     A.U. after    8 cycles
 SCF Done:  E(RPBE1PBE) =  -460.416431060     A.U. after    8 cycles
 SCF Done:  E(RPBE1PBE) =  -460.415677253     A.U. after    8 cycles
 SCF Done:  E(RPBE1PBE) =  -460.414964553     A.U. after    9 cycles
 SCF Done:  E(RPBE1PBE) =  -460.414290328     A.U. after    9 cycles
 SCF Done:  E(RPBE1PBE) =  -460.413652225     A.U. after    9 cycles
 SCF Done:  E(RPBE1PBE) =  -460.413048150     A.U. after    9 cycles
 SCF Done:  E(RPBE1PBE) =  -460.412476184     A.U. after    9 cycles

                         Standard orientation:
 ---------------------------------------------------------------------
 Center     Atomic      Atomic             Coordinates (Angstroms)
 Number     Number       Type             X           Y           Z
 ---------------------------------------------------------------------
      1          1           0        0.000000    0.000000   -4.250000
      2         17           0        0.000000    0.000000    0.250000
 ---------------------------------------------------------------------

 SCF Done:  E(RPBE1PBE) =  -460.411934478     A.U. after    9 cycles
 Normal termination of Gaussian 16 at Mon Apr 17 13:32:19 2023.
