 Gaussian 16, Revision B.01,
 Gaussian 16:  ES64L-G16RevB.01 20-Dec-2017

 ------------------------------
 # HF 6-31G(d,p) # sp scf=tight
 ------------------------------

 ------------------
 F Atom Calculation
 ------------------
 Symbolic Z-matrix:
 Charge =  0 Multiplicity = 2

                         Standard orientation:
 ---------------------------------------------------------------------
 Center     Atomic      Atomic             Coordinates (Angstroms)
 Number     Number       Type             X           Y           Z
 ---------------------------------------------------------------------
      1          9           0        0.000000    0.000000    0.000000
 ---------------------------------------------------------------------

 SCF Done:  E(UHF) =  -99.3649568696     A.U. after    9 cycles

 Unable to determine electronic state:  an orbital has unidentified symmetry.
 Alpha  occ. eigenvalues --  -26.40110  -1.65491  -0.82316  -0.71525  -0.71525
 Alpha virt. eigenvalues --    1.06797   1.36498   1.43341   1.43341   2.04047
 Alpha virt. eigenvalues --    2.05775   2.05775   2.11192   2.11192   3.69853
  Beta  occ. eigenvalues --  -26.35335  -1.46300  -0.66360  -0.66360
  Beta virt. eigenvalues --    0.09366   1.10027   1.45866   1.45866   1.58849
  Beta virt. eigenvalues --    2.11865   2.11865   2.14656   2.14656   2.15757
  Beta virt. eigenvalues --    3.74153

 Mulliken charges and spin densities:
               1          2
     1  F    0.000000   1.000000
 Sum of Mulliken charges =   0.00000   1.00000

 Dipole moment (field-independent basis, Debye):
    X=              0.0000    Y=              0.0000    Z=              0.0000  Tot=              0.0000
 Quadrupole moment (field-independent basis, Debye-Ang):
   XX=             -4.7075   YY=             -4.7075   ZZ=             -3.8545
   XY=              0.0000   XZ=              0.0000   YZ=             -0.0000

 Normal termination of Gaussian 16 at Wed Mar  8 03:06:33 2023.
