 Gaussian 16, Revision B.01,
 Gaussian 16:  ES64L-G16RevB.01 20-Dec-2017

 ------------------------------
 # HF 6-31G(d,p) # sp scf=tight
 ------------------------------

 -------------------------
 Hydrogen Atom Calculation
 -------------------------
 Symbolic Z-matrix:
 Charge =  0 Multiplicity = 1

                         Standard orientation:
 ---------------------------------------------------------------------
 Center     Atomic      Atomic             Coordinates (Angstroms)
 Number     Number       Type             X           Y           Z
 ---------------------------------------------------------------------
      1          9           0        0.000000    0.000000    0.087000
      2          1           0        0.000000    0.000000   -0.783000
 ---------------------------------------------------------------------

 SCF Done:  E(RHF) =  -100.010377535     A.U. after    9 cycles

 The electronic state is 1-SG.
 Alpha  occ. eigenvalues --  -26.27680  -1.59740  -0.76151  -0.63185  -0.63185
 Alpha virt. eigenvalues --    0.23042   1.07985   1.32787   1.48873   1.48873
 Alpha virt. eigenvalues --    1.69956   1.90408   1.90408   2.15230   2.15230
 Alpha virt. eigenvalues --    2.96335   3.10348   3.10348   4.08190   4.19527

 Mulliken charges:
               1
     1  F   -0.368941
     2  H    0.368941
 Sum of Mulliken charges =   0.00000

 Dipole moment (field-independent basis, Debye):
    X=              0.0000    Y=              0.0000    Z=             -1.8907  Tot=              1.8907
 Quadrupole moment (field-independent basis, Debye-Ang):
   XX=             -5.3293   YY=             -5.3293   ZZ=             -3.4601
   XY=              0.0000   XZ=              0.0000   YZ=              0.0000

 Normal termination of Gaussian 16 at Mon Feb 27 15:32:17 2023.
