 Gaussian 16, Revision B.01,
 Gaussian 16:  ES64L-G16RevB.01 20-Dec-2017

 -----------------------------------
 # PBE1PBE 6-31G(d,p) # sp scf=tight
 -----------------------------------

 -------------------
 HF Atom Calculation
 -------------------
 Symbolic Z-matrix:
 Charge =  0 Multiplicity = 1

                         Standard orientation:
 ---------------------------------------------------------------------
 Center     Atomic      Atomic             Coordinates (Angstroms)
 Number     Number       Type             X           Y           Z
 ---------------------------------------------------------------------
      1          9           0        0.000000    0.000000    0.089000
      2          1           0        0.000000    0.000000   -0.801000
 ---------------------------------------------------------------------

 SCF Done:  E(RPBE1PBE) =  -100.331761577     A.U. after    9 cycles

 The electronic state is 1-SG.
 Alpha  occ. eigenvalues --  -24.74604  -1.21128  -0.54154  -0.39591  -0.39591
 Alpha virt. eigenvalues --    0.09932   0.81421   1.11109   1.20490   1.20490
 Alpha virt. eigenvalues --    1.45142   1.63503   1.63503   1.87961   1.87961
 Alpha virt. eigenvalues --    2.59705   2.77767   2.77767   3.69899   3.78865

 Mulliken charges:
               1
     1  F   -0.352602
     2  H    0.352602
 Sum of Mulliken charges =  -0.00000

 Dipole moment (field-independent basis, Debye):
    X=              0.0000    Y=              0.0000    Z=             -1.8040  Tot=              1.8040
 Quadrupole moment (field-independent basis, Debye-Ang):
   XX=             -5.3413   YY=             -5.3413   ZZ=             -3.5047
   XY=              0.0000   XZ=              0.0000   YZ=              0.0000

 Normal termination of Gaussian 16 at Wed Mar  1 23:39:17 2023.
