 Gaussian 16, Revision B.01,
 Gaussian 16:  ES64L-G16RevB.01 20-Dec-2017

 ------------------------------
 # HF 6-31G(d,p) # sp scf=tight
 ------------------------------

 -------------------------
 Hydrogen Atom Calculation
 -------------------------
 Symbolic Z-matrix:
 Charge =  0 Multiplicity = 1

                         Standard orientation:
 ---------------------------------------------------------------------
 Center     Atomic      Atomic             Coordinates (Angstroms)
 Number     Number       Type             X           Y           Z
 ---------------------------------------------------------------------
      1          9           0        0.000000    0.000000    0.100000
      2          1           0        0.000000    0.000000   -0.900000
 ---------------------------------------------------------------------

 SCF Done:  E(RHF) =  -100.001470724     A.U. after    9 cycles

 The electronic state is 1-SG.
 Alpha  occ. eigenvalues --  -26.27920  -1.55277  -0.71141  -0.61965  -0.61965
 Alpha virt. eigenvalues --    0.19343   0.97008   1.30817   1.48616   1.48616
 Alpha virt. eigenvalues --    1.72075   1.88999   1.88999   2.16473   2.16473
 Alpha virt. eigenvalues --    2.66941   2.93429   2.93429   3.91053   4.06714

 Mulliken charges:
               1
     1  F   -0.426960
     2  H    0.426960
 Sum of Mulliken charges =  -0.00000

 Dipole moment (field-independent basis, Debye):
    X=              0.0000    Y=              0.0000    Z=             -2.1131  Tot=              2.1131
 Quadrupole moment (field-independent basis, Debye-Ang):
   XX=             -5.4504   YY=             -5.4504   ZZ=             -3.0821
   XY=              0.0000   XZ=              0.0000   YZ=              0.0000

 Normal termination of Gaussian 16 at Mon Feb 27 15:32:14 2023.
