 Gaussian 16, Revision B.01,
 Gaussian 16:  ES64L-G16RevB.01 20-Dec-2017

 --------------------------------
 # PBE1PBE cc-pVTZ # sp scf=tight
 --------------------------------

 -----------------------
 test calculations for H
 -----------------------
 Symbolic Z-matrix:
 Charge =  0 Multiplicity = 2

                         Standard orientation:
 ---------------------------------------------------------------------
 Center     Atomic      Atomic             Coordinates (Angstroms)
 Number     Number       Type             X           Y           Z
 ---------------------------------------------------------------------
      1          1           0        0.000000    0.000000    0.000000
 ---------------------------------------------------------------------

 SCF Done:  E(UPBE1PBE) = -0.501037900066     A.U. after    5 cycles

 The electronic state is 2-A1G.
 Alpha  occ. eigenvalues --   -0.33474
 Alpha virt. eigenvalues --    0.24873   0.58055   0.58055   0.58055   2.17300
 Alpha virt. eigenvalues --    3.15080   3.15080   3.15080   3.15080   3.15080
 Alpha virt. eigenvalues --    3.52691   3.52691   3.52691

 Mulliken charges and spin densities:
               1          2
     1  H   -0.000000   1.000000
 Sum of Mulliken charges =  -0.00000   1.00000

 Dipole moment (field-independent basis, Debye):
    X=              0.0000    Y=              0.0000    Z=              0.0000  Tot=              0.0000
 Quadrupole moment (field-independent basis, Debye-Ang):
   XX=             -1.3833   YY=             -1.3833   ZZ=             -1.3833
   XY=              0.0000   XZ=              0.0000   YZ=             -0.0000

 Normal termination of Gaussian 16 at Mon Feb 27 15:09:34 2023.
