 Gaussian 16, Revision B.01,
 Gaussian 16:  ES64L-G16RevB.01 20-Dec-2017

 ------------------------------------
 # HF 6-31G(d,p) # opt freq scf=tight
 ------------------------------------

 ------------------
 F Atom Calculation
 ------------------
 Symbolic Z-matrix:
 Charge =  1 Multiplicity = 1

 SCF Done:  E(RHF) =  -76.2829514594     A.U. after    8 cycles
 SCF Done:  E(RHF) =  -76.3085175386     A.U. after    9 cycles
 SCF Done:  E(RHF) =  -76.3089001123     A.U. after    7 cycles
 Optimization completed.
    -- Stationary point found.
 Normal termination of Gaussian 16 at Wed Mar  8 17:28:50 2023.

 -------------------------------------------------------------------
 #N Geom=AllCheck Guess=TCheck SCRF=Check GenChk RHF/6-31G(d,p) Freq
 -------------------------------------------------------------------

 Structure from the checkpoint file:  "/scratch-data/g16-scratch/Gau-253989.chk"
 ------------------
 F Atom Calculation
 ------------------
 Charge =  1 Multiplicity = 1

                         Standard orientation:
 ---------------------------------------------------------------------
 Center     Atomic      Atomic             Coordinates (Angstroms)
 Number     Number       Type             X           Y           Z
 ---------------------------------------------------------------------
      1          8           0        0.000000    0.000000   -0.000033
      2          1           0        0.000000    0.829728   -0.478894
      3          1           0        0.000000   -0.829728   -0.478894
      4          1           0       -0.000000   -0.000000    0.958055
 ---------------------------------------------------------------------

 SCF Done:  E(RHF) =  -76.3089001123     A.U. after    1 cycles

 The electronic state is 1-A1.
 Alpha  occ. eigenvalues --  -21.00289  -1.80001  -1.15481  -1.15471  -0.93440
 Alpha virt. eigenvalues --   -0.10671   0.00942   0.00946   0.66530   0.66549
 Alpha virt. eigenvalues --    0.66678   0.76775   0.89750   0.89753   1.08758
 Alpha virt. eigenvalues --    1.37389   1.37395   1.97458   2.13683   2.16447

 Mulliken charges:
               1
     1  O   -0.453675
     2  H    0.484549
     3  H    0.484549
     4  H    0.484577
 Sum of Mulliken charges =   1.00000

 Dipole moment (field-independent basis, Debye):
    X=              0.0000    Y=             -0.0000    Z=              0.0007  Tot=              0.0007
 Quadrupole moment (field-independent basis, Debye-Ang):
   XX=             -6.5158   YY=             -2.0835   ZZ=             -2.0847
   XY=             -0.0000   XZ=             -0.0000   YZ=             -0.0000

  Exact polarizability:   2.705  -0.000   5.048  -0.000  -0.000   5.048
 Approx polarizability:   2.434  -0.000   4.325  -0.000   0.000   4.324

 ******    1 imaginary frequencies (negative Signs) ******

                      1                      2                      3
                     B1                     A1                     B2
 Frequencies --   -581.2332              1745.7047              1746.2238
 Red. masses --      1.1842                 1.0787                 1.0787
 Frc consts  --      0.2357                 1.9369                 1.9380
 IR Inten    --    764.5757               164.3988               164.3846
 Raman Activ --      0.0000                 1.1898                 1.1921

                      4                      5                      6
                     A1                     A1                     B2
 Frequencies --   3876.0466              4047.4261              4048.3929
 Red. masses --      1.0078                 1.0993                 1.0993
 Frc consts  --      8.9210                10.6104                10.6157
 IR Inten    --      0.0083               732.9369               733.2986
 Raman Activ --     36.5307                 8.4320                 8.4223

 - Thermochemistry -
 -------------------
 Temperature   298.150 Kelvin.  Pressure   1.00000 Atm.
 Atom     1 has atomic number  8 and mass  15.99491

 Molecular mass:    19.01839 amu.
 Principal axes and moments of inertia in atomic units:
                           1         2         3
     Eigenvalues --     4.95421   4.95547   9.90968
           X            0.00000   0.00000   1.00000
           Y            1.00000   0.00000  -0.00000
           Z           -0.00000   1.00000  -0.00000
 This molecule is an asymmetric top.
 Rotational symmetry number  2.
 Rotational temperatures (Kelvin)     17.48289    17.47845     8.74033
 Rotational constants (GHZ):         364.28430   364.19172   182.11900
    1 imaginary frequencies ignored.
 Zero-point vibrational energy      92494.0 (Joules/Mol)
                                   22.10660 (Kcal/Mol)
 Vibrational temperatures:   2511.68  2512.43  5576.77  5823.34  5824.73
          (Kelvin)

 Zero-point correction=                           0.035229 (Hartree/Particle)
 Thermal correction to Energy=                    0.038065
 Thermal correction to Enthalpy=                  0.039009
 Thermal correction to Gibbs Free Energy=         0.016838
 Sum of electronic and zero-point Energies=            -76.273671
 Sum of electronic and thermal Energies=               -76.270835
 Sum of electronic and thermal Enthalpies=             -76.269891
 Sum of electronic and thermal Free Energies=          -76.292062

                     E (Thermal)             CV                S
                      KCal/Mol        Cal/Mol-Kelvin    Cal/Mol-Kelvin
 Total                   23.886              6.023             46.663
 Electronic               0.000              0.000              0.000
 Translational            0.889              2.981             34.771
 Rotational               0.889              2.981             11.885
 Vibrational             22.109              0.062              0.008

 Optimization completed.
    -- Stationary point found.
 Normal termination of Gaussian 16 at Wed Mar  8 17:28:52 2023.
