 Gaussian 16, Revision B.01,
 Gaussian 16:  ES64L-G16RevB.01 20-Dec-2017

 -------------------------------
 # PBEPBE cc-pVQZ # sp scf=tight
 -------------------------------

 -----------------------
 test calculations for H
 -----------------------
 Symbolic Z-matrix:
 Charge =  0 Multiplicity = 2

                         Standard orientation:
 ---------------------------------------------------------------------
 Center     Atomic      Atomic             Coordinates (Angstroms)
 Number     Number       Type             X           Y           Z
 ---------------------------------------------------------------------
      1          1           0        0.000000    0.000000    0.000000
 ---------------------------------------------------------------------

 SCF Done:  E(UPBE-PBE) = -0.499854125505     A.U. after    6 cycles

 The electronic state is 2-A1G.
 Alpha  occ. eigenvalues --   -0.27835
 Alpha virt. eigenvalues --    0.15595   0.36158   0.36158   0.36158   1.21412
 Alpha virt. eigenvalues --    1.79017   1.79017   1.79017   1.79017   1.79017
 Alpha virt. eigenvalues --    2.03170   2.03170   2.03170   5.66360   5.66360

 Mulliken charges and spin densities:
               1          2
     1  H   -0.000000   1.000000
 Sum of Mulliken charges =  -0.00000   1.00000

 Dipole moment (field-independent basis, Debye):
    X=              0.0000    Y=              0.0000    Z=              0.0000  Tot=              0.0000
 Quadrupole moment (field-independent basis, Debye-Ang):
   XX=             -1.4235   YY=             -1.4235   ZZ=             -1.4235
   XY=              0.0000   XZ=              0.0000   YZ=             -0.0000

 Normal termination of Gaussian 16 at Mon Feb 27 15:09:32 2023.
