 Gaussian 16, Revision B.01,
 Gaussian 16:  ES64L-G16RevB.01 20-Dec-2017

 -------------------------------
 # MP2 6-31G(d,p) scf=tight scan
 -------------------------------

 -----------------------------
 h3o+ scan along umbrella mode
 -----------------------------
 Symbolic Z-matrix:
 Charge =  1 Multiplicity = 1

 SCF Done:  E(RHF) =  -76.2084334233     A.U. after    9 cycles
 E2 =    -0.2067637961D+00 EUMP2 =    -0.76415197219358D+02

 The electronic state is 1-A1.
 Alpha  occ. eigenvalues --  -21.06403  -1.90769  -1.10298  -1.10298  -1.08289
 Alpha virt. eigenvalues --   -0.15314  -0.02960  -0.02960   0.56401   0.56401
 Alpha virt. eigenvalues --    0.66620   0.78978   0.90191   0.90191   1.09720
 Alpha virt. eigenvalues --    1.23940   1.23940   1.83400   2.09545   2.09545

 Mulliken charges:
               1
     1  O   -0.253286
     2  H    0.417762
     3  H    0.417762
     4  H    0.417762
 Sum of Mulliken charges =   1.00000

 Dipole moment (field-independent basis, Debye):
    X=             -0.0000    Y=             -0.0000    Z=             -3.4856  Tot=              3.4856
 Quadrupole moment (field-independent basis, Debye-Ang):
   XX=             -4.3749   YY=             -4.3749   ZZ=             -4.0351
   XY=             -0.0000   XZ=              0.0000   YZ=              0.0000

 SCF Done:  E(RHF) =  -76.2170946459     A.U. after    8 cycles
 E2 =    -0.2060410555D+00 EUMP2 =    -0.76423135701441D+02
 SCF Done:  E(RHF) =  -76.2252277085     A.U. after    8 cycles
 E2 =    -0.2053360195D+00 EUMP2 =    -0.76430563728023D+02
 SCF Done:  E(RHF) =  -76.2328568241     A.U. after    8 cycles
 E2 =    -0.2046522647D+00 EUMP2 =    -0.76437509088735D+02
 SCF Done:  E(RHF) =  -76.2400043340     A.U. after    8 cycles
 E2 =    -0.2039924535D+00 EUMP2 =    -0.76443996787574D+02
 SCF Done:  E(RHF) =  -76.2466909375     A.U. after    8 cycles
 E2 =    -0.2033584302D+00 EUMP2 =    -0.76450049367672D+02
 SCF Done:  E(RHF) =  -76.2529359137     A.U. after    8 cycles
 E2 =    -0.2027513327D+00 EUMP2 =    -0.76455687246330D+02
 SCF Done:  E(RHF) =  -76.2587573359     A.U. after    8 cycles
 E2 =    -0.2021717139D+00 EUMP2 =    -0.76460929049796D+02
 SCF Done:  E(RHF) =  -76.2641722729     A.U. after    8 cycles
 E2 =    -0.2016196620D+00 EUMP2 =    -0.76465791934919D+02
 SCF Done:  E(RHF) =  -76.2691969746     A.U. after    8 cycles
 E2 =    -0.2010949114D+00 EUMP2 =    -0.76470291886041D+02
 E2 =    -0.2005969407D+00 EUMP2 =    -0.76474443978729D+02
 E2 =    -0.2001250526D+00 EUMP2 =    -0.76478262605969D+02
 E2 =    -0.1996784380D+00 EUMP2 =    -0.76481761666158D+02
 E2 =    -0.1992562233D+00 EUMP2 =    -0.76484954714988D+02
 E2 =    -0.1988575045D+00 EUMP2 =    -0.76487855085084D+02
 E2 =    -0.1984813713D+00 EUMP2 =    -0.76490475977963D+02
 E2 =    -0.1981269225D+00 EUMP2 =    -0.76492830532896D+02
 E2 =    -0.1977932755D+00 EUMP2 =    -0.76494931876848D+02
 E2 =    -0.1974795726D+00 EUMP2 =    -0.76496793158954D+02
 E2 =    -0.1971849833D+00 EUMP2 =    -0.76498427572332D+02
 E2 =    -0.1955942975D+00 EUMP2 =    -0.76504634928239D+02
 E2 =    -0.1954261158D+00 EUMP2 =    -0.76504934561573D+02
 E2 =    -0.1952708143D+00 EUMP2 =    -0.76505127288673D+02
 E2 =    -0.1951278223D+00 EUMP2 =    -0.76505226108945D+02
 E2 =    -0.1949965905D+00 EUMP2 =    -0.76505243796436D+02
 E2 =    -0.1948765914D+00 EUMP2 =    -0.76505192840621D+02
 E2 =    -0.1947673192D+00 EUMP2 =    -0.76505085383076D+02
 E2 =    -0.1946682905D+00 EUMP2 =    -0.76504933150740D+02
 E2 =    -0.1945790453D+00 EUMP2 =    -0.76504747386568D+02
 E2 =    -0.1944991486D+00 EUMP2 =    -0.76504538778524D+02
 SCF Done:  E(RHF) =  -76.3098891964     A.U. after    8 cycles
 E2 =    -0.1944281916D+00 EUMP2 =    -0.76504317387962D+02
 SCF Done:  E(RHF) =  -76.3097267841     A.U. after    8 cycles
 E2 =    -0.1943657944D+00 EUMP2 =    -0.76504092578518D+02
 SCF Done:  E(RHF) =  -76.3095613389     A.U. after    8 cycles
 E2 =    -0.1943116079D+00 EUMP2 =    -0.76503872946733D+02
 SCF Done:  E(RHF) =  -76.3094009398     A.U. after    8 cycles
 E2 =    -0.1942653159D+00 EUMP2 =    -0.76503666255629D+02
 SCF Done:  E(RHF) =  -76.3092527344     A.U. after    8 cycles
 E2 =    -0.1942266381D+00 EUMP2 =    -0.76503479372499D+02
 SCF Done:  E(RHF) =  -76.3091228796     A.U. after    8 cycles
 E2 =    -0.1941953325D+00 EUMP2 =    -0.76503318212078D+02
 SCF Done:  E(RHF) =  -76.3090164891     A.U. after    8 cycles
 E2 =    -0.1941711972D+00 EUMP2 =    -0.76503187686329D+02
 SCF Done:  E(RHF) =  -76.3089375886     A.U. after    8 cycles
 E2 =    -0.1941540731D+00 EUMP2 =    -0.76503091661720D+02
 SCF Done:  E(RHF) =  -76.3088890801     A.U. after    8 cycles
 E2 =    -0.1941438449D+00 EUMP2 =    -0.76503032925072D+02

                         Standard orientation:
 ---------------------------------------------------------------------
 Center     Atomic      Atomic             Coordinates (Angstroms)
 Number     Number       Type             X           Y           Z
 ---------------------------------------------------------------------
      1          8           0        0.000000    0.000000    0.000000
      2          1           0        0.000000    0.961200    0.000000
      3          1           0        0.832424   -0.480600    0.000000
      4          1           0       -0.832424   -0.480600    0.000000
 ---------------------------------------------------------------------

 SCF Done:  E(RHF) =  -76.3088727154     A.U. after    5 cycles
 E2 =    -0.1941404428D+00 EUMP2 =    -0.76503013158224D+02
 Normal termination of Gaussian 16 at Mon Mar 13 23:00:19 2023.
