 Gaussian 16, Revision B.01,
 Gaussian 16:  ES64L-G16RevB.01 20-Dec-2017

 ------------------------------
 # HF 6-31G(d,p) # sp scf=tight
 ------------------------------

 -------------------------
 Hydrogen Atom Calculation
 -------------------------
 Symbolic Z-matrix:
 Charge =  0 Multiplicity = 1

                         Standard orientation:
 ---------------------------------------------------------------------
 Center     Atomic      Atomic             Coordinates (Angstroms)
 Number     Number       Type             X           Y           Z
 ---------------------------------------------------------------------
      1          9           0        0.000000    0.000000    0.093000
      2          1           0        0.000000    0.000000   -0.837000
 ---------------------------------------------------------------------

 SCF Done:  E(RHF) =  -100.010635656     A.U. after    9 cycles

 The electronic state is 1-SG.
 Alpha  occ. eigenvalues --  -26.27803  -1.57460  -0.73796  -0.62586  -0.62586
 Alpha virt. eigenvalues --    0.21450   1.02171   1.31856   1.48839   1.48839
 Alpha virt. eigenvalues --    1.70870   1.89443   1.89443   2.15816   2.15816
 Alpha virt. eigenvalues --    2.82715   3.02457   3.02457   3.99888   4.10885

 Mulliken charges:
               1
     1  F   -0.401326
     2  H    0.401326
 Sum of Mulliken charges =   0.00000

 Dipole moment (field-independent basis, Debye):
    X=              0.0000    Y=              0.0000    Z=             -1.9947  Tot=              1.9947
 Quadrupole moment (field-independent basis, Debye-Ang):
   XX=             -5.3867   YY=             -5.3867   ZZ=             -3.2938
   XY=              0.0000   XZ=              0.0000   YZ=              0.0000

 Normal termination of Gaussian 16 at Mon Feb 27 15:32:19 2023.
