 Gaussian 16, Revision B.01,
 Gaussian 16:  ES64L-G16RevB.01 20-Dec-2017

 -----------------------------------
 # PBE1PBE 6-31G(d,p) # sp scf=tight
 -----------------------------------

 -------------------
 HF Atom Calculation
 -------------------
 Symbolic Z-matrix:
 Charge =  0 Multiplicity = 1

                         Standard orientation:
 ---------------------------------------------------------------------
 Center     Atomic      Atomic             Coordinates (Angstroms)
 Number     Number       Type             X           Y           Z
 ---------------------------------------------------------------------
      1          9           0        0.000000    0.000000    0.080000
      2          1           0        0.000000    0.000000   -0.720000
 ---------------------------------------------------------------------

 SCF Done:  E(RPBE1PBE) =  -100.310543365     A.U. after    8 cycles

 The electronic state is 1-SG.
 Alpha  occ. eigenvalues --  -24.74327  -1.24831  -0.56230  -0.40511  -0.40511
 Alpha virt. eigenvalues --    0.12741   0.90836   1.12277   1.20349   1.20349
 Alpha virt. eigenvalues --    1.45835   1.65382   1.65382   1.87143   1.87143
 Alpha virt. eigenvalues --    2.79681   2.89359   2.89359   3.77996   4.03476

 Mulliken charges:
               1
     1  F   -0.302609
     2  H    0.302609
 Sum of Mulliken charges =   0.00000

 Dipole moment (field-independent basis, Debye):
    X=              0.0000    Y=              0.0000    Z=             -1.6800  Tot=              1.6800
 Quadrupole moment (field-independent basis, Debye-Ang):
   XX=             -5.2537   YY=             -5.2537   ZZ=             -3.7037
   XY=              0.0000   XZ=              0.0000   YZ=              0.0000

 Normal termination of Gaussian 16 at Wed Mar  1 23:39:11 2023.
