 Gaussian 16, Revision B.01,
 Gaussian 16:  ES64L-G16RevB.01 20-Dec-2017

 ---------------------------------------
 # CCSD(T) 6-311+g(d,p) # scan scf=tight
 ---------------------------------------

 -------------------------------------
 Scan of HCl Bond using CCSD(T) Method
 -------------------------------------
 Symbolic Z-matrix:
 Charge =  0 Multiplicity = 1

 SCF Done:  E(RHF) =  -458.742800696     A.U. after    9 cycles
 E2 =    -0.1524356230D+00 EUMP2 =    -0.45889523631860D+03
 CCSD(T)= -0.45891375571D+03

 The electronic state is 1-SG.
 Alpha  occ. eigenvalues -- -104.81266 -10.62337  -8.12076  -8.06120  -8.06120
 Alpha  occ. eigenvalues --   -1.33147  -0.71263  -0.50081  -0.50081
 Alpha virt. eigenvalues --    0.07446   0.11438   0.12236   0.12236   0.34747
 Alpha virt. eigenvalues --    0.38779   0.57975   0.57975   0.66164   0.99292
 Alpha virt. eigenvalues --    0.99292   1.11699   1.11699   1.30167   1.37896

 Mulliken charges:
               1
     1  H   -0.159277
     2  Cl   0.159277
 Sum of Mulliken charges =   0.00000

 Dipole moment (field-independent basis, Debye):
    X=              0.0000    Y=              0.0000    Z=             -0.8381  Tot=              0.8381
 Quadrupole moment (field-independent basis, Debye-Ang):
   XX=            -13.2152   YY=            -13.2152   ZZ=            -11.2732
   XY=              0.0000   XZ=              0.0000   YZ=              0.0000

 SCF Done:  E(RHF) =  -459.089967837     A.U. after   10 cycles
 E2 =    -0.1513677023D+00 EUMP2 =    -0.45924133553953D+03
 CCSD(T)= -0.45925976585D+03
 SCF Done:  E(RHF) =  -459.354103113     A.U. after   10 cycles
 E2 =    -0.1505580092D+00 EUMP2 =    -0.45950466112260D+03
 CCSD(T)= -0.45952302969D+03
 SCF Done:  E(RHF) =  -459.554689144     A.U. after   10 cycles
 E2 =    -0.1499685847D+00 EUMP2 =    -0.45970465772867D+03
 CCSD(T)= -0.45972299451D+03
 SCF Done:  E(RHF) =  -459.706468828     A.U. after   10 cycles
 E2 =    -0.1495510084D+00 EUMP2 =    -0.45985601983669D+03
 CCSD(T)= -0.45987435182D+03
 SCF Done:  E(RHF) =  -459.820695436     A.U. after   10 cycles
 E2 =    -0.1492614089D+00 EUMP2 =    -0.45996995684523D+03
 CCSD(T)= -0.45998830734D+03
 SCF Done:  E(RHF) =  -459.905995175     A.U. after    9 cycles
 E2 =    -0.1490668977D+00 EUMP2 =    -0.46005506207266D+03
 CCSD(T)= -0.46007345194D+03
 SCF Done:  E(RHF) =  -459.968990043     A.U. after    9 cycles
 E2 =    -0.1489451859D+00 EUMP2 =    -0.46011793522842D+03
 CCSD(T)= -0.46013638440D+03
 SCF Done:  E(RHF) =  -460.014767597     A.U. after    9 cycles
 E2 =    -0.1488819989D+00 EUMP2 =    -0.46016364959594D+03
 CCSD(T)= -0.46018217850D+03
 SCF Done:  E(RHF) =  -460.047241519     A.U. after    9 cycles
 E2 =    -0.1488688572D+00 EUMP2 =    -0.46019611037618D+03
 CCSD(T)= -0.46021474120D+03
 SCF Done:  E(RHF) =  -459.786849843     A.U. after    7 cycles
 CCSD(T)= -0.46012094990D+03
 SCF Done:  E(RHF) =  -459.785188169     A.U. after    7 cycles
 E2 =    -0.2621330119D+00 EUMP2 =    -0.46004732118071D+03
 CCSD(T)= -0.46012129548D+03
 SCF Done:  E(RHF) =  -459.783592560     A.U. after    7 cycles
 E2 =    -0.2653289792D+00 EUMP2 =    -0.46004892153914D+03
 CCSD(T)= -0.46012162559D+03
 SCF Done:  E(RHF) =  -459.782059959     A.U. after    7 cycles
 E2 =    -0.2685394634D+00 EUMP2 =    -0.46005059942258D+03
 CCSD(T)= -0.46012194036D+03
 SCF Done:  E(RHF) =  -459.780587439     A.U. after    7 cycles
 E2 =    -0.2717629792D+00 EUMP2 =    -0.46005235041837D+03
 CCSD(T)= -0.46012223983D+03
 SCF Done:  E(RHF) =  -459.779172198     A.U. after    7 cycles
 E2 =    -0.2749980915D+00 EUMP2 =    -0.46005417028975D+03
 CCSD(T)= -0.46012252436D+03
 SCF Done:  E(RHF) =  -459.777811556     A.U. after    7 cycles
 E2 =    -0.2782434183D+00 EUMP2 =    -0.46005605497388D+03
 CCSD(T)= -0.46012279403D+03
 SCF Done:  E(RHF) =  -459.776502947     A.U. after    7 cycles
 E2 =    -0.2814976325D+00 EUMP2 =    -0.46005800057992D+03
 CCSD(T)= -0.46012305003D+03
 SCF Done:  E(RHF) =  -459.775243923     A.U. after    7 cycles
 E2 =    -0.2847594638D+00 EUMP2 =    -0.46006000338697D+03
 CCSD(T)= -0.46012329205D+03

                         Standard orientation:
 ---------------------------------------------------------------------
 Center     Atomic      Atomic             Coordinates (Angstroms)
 Number     Number       Type             X           Y           Z
 ---------------------------------------------------------------------
      1          1           0        0.000000    0.000000   -4.250000
      2         17           0        0.000000    0.000000    0.250000
 ---------------------------------------------------------------------

 SCF Done:  E(RHF) =  -459.774032142     A.U. after    7 cycles
 E2 =    -0.2880277002D+00 EUMP2 =    -0.46006205984182D+03
 CCSD(T)= -0.46012352085D+03
 -460.0829139,-460.0828577,-460.0828059\CCSD(T)=-458.9137557,-459.25976
 Normal termination of Gaussian 16 at Mon Apr 17 13:35:42 2023.
