 Gaussian 16, Revision B.01,
 Gaussian 16:  ES64L-G16RevB.01 20-Dec-2017

 -----------------------------------
 # UHF 6-311+g(d,p) # scan scf=tight
 -----------------------------------

 ---------------------------------
 Scan of HCl Bond using UHF Method
 ---------------------------------
 Symbolic Z-matrix:
 Charge =  0 Multiplicity = 1

 SCF Done:  E(UHF) =  -458.742800696     A.U. after    9 cycles

 The electronic state is 1-SG.
 Alpha  occ. eigenvalues -- -104.81266 -10.62337  -8.12076  -8.06120  -8.06120
 Alpha  occ. eigenvalues --   -1.33147  -0.71263  -0.50081  -0.50081
 Alpha virt. eigenvalues --    0.07446   0.11438   0.12236   0.12236   0.34747
 Alpha virt. eigenvalues --    0.38779   0.57975   0.57975   0.66164   0.99292
 Alpha virt. eigenvalues --    0.99292   1.11699   1.11699   1.30167   1.37896

  Beta  occ. eigenvalues -- -104.81266 -10.62337  -8.12076  -8.06120  -8.06120
  Beta  occ. eigenvalues --   -1.33147  -0.71263  -0.50081  -0.50081
  Beta virt. eigenvalues --    0.07446   0.11438   0.12236   0.12236   0.34747
  Beta virt. eigenvalues --    0.38779   0.57975   0.57975   0.66164   0.99292
  Beta virt. eigenvalues --    0.99292   1.11699   1.11699   1.30167   1.37896

 Mulliken charges and spin densities:
               1          2
     1  H   -0.159277   0.000000
     2  Cl   0.159277   0.000000
 Sum of Mulliken charges =   0.00000   0.00000

 Dipole moment (field-independent basis, Debye):
    X=              0.0000    Y=              0.0000    Z=             -0.8381  Tot=              0.8381
 Quadrupole moment (field-independent basis, Debye-Ang):
   XX=            -13.2152   YY=            -13.2152   ZZ=            -11.2732
   XY=              0.0000   XZ=              0.0000   YZ=              0.0000

 SCF Done:  E(UHF) =  -459.089967837     A.U. after   10 cycles
 SCF Done:  E(UHF) =  -459.354103113     A.U. after   10 cycles
 SCF Done:  E(UHF) =  -459.554689144     A.U. after   10 cycles
 SCF Done:  E(UHF) =  -459.706468828     A.U. after   10 cycles
 SCF Done:  E(UHF) =  -459.820695436     A.U. after   10 cycles
 SCF Done:  E(UHF) =  -459.905995175     A.U. after    9 cycles
 SCF Done:  E(UHF) =  -459.968990043     A.U. after    9 cycles
 SCF Done:  E(UHF) =  -460.014767597     A.U. after    9 cycles
 SCF Done:  E(UHF) =  -460.047241519     A.U. after    9 cycles
 SCF Done:  E(UHF) =  -459.786849843     A.U. after    7 cycles
 SCF Done:  E(UHF) =  -459.785188169     A.U. after    7 cycles
 SCF Done:  E(UHF) =  -459.783592560     A.U. after    7 cycles
 SCF Done:  E(UHF) =  -459.782059959     A.U. after    7 cycles
 SCF Done:  E(UHF) =  -459.780587439     A.U. after    7 cycles
 SCF Done:  E(UHF) =  -459.779172198     A.U. after    7 cycles
 SCF Done:  E(UHF) =  -459.777811556     A.U. after    7 cycles
 SCF Done:  E(UHF) =  -459.776502947     A.U. after    7 cycles
 SCF Done:  E(UHF) =  -459.775243923     A.U. after    7 cycles

                         Standard orientation:
 ---------------------------------------------------------------------
 Center     Atomic      Atomic             Coordinates (Angstroms)
 Number     Number       Type             X           Y           Z
 ---------------------------------------------------------------------
      1          1           0        0.000000    0.000000   -4.250000
      2         17           0        0.000000    0.000000    0.250000
 ---------------------------------------------------------------------

 SCF Done:  E(UHF) =  -459.774032142     A.U. after    7 cycles
 Normal termination of Gaussian 16 at Mon Apr 17 13:30:06 2023.
